ACTNUM
ADD
ADDREG
ADDZCORN
AMALGAM
AQUANCON
AQUCON
AQUCT
AQUNNC
AQUNUM
AUTOCOAR
BOUNDARY
BOX
BTOBALFA
BTOBALFV
CARFIN
COALNUM
COARSEN
COLLAPSE
COLUMNS
COORD
COORDSYS
COPY
COPYBOX
COPYREG
CRITPERM
DEBUG
DIFFMR
DIFFMR-
DIFFMTHT
DIFFMTH-
DIFFMX
DIFFMX-
DIFFMY
DIFFMY-
DIFFMZ
DIFFMZ-
DOMAINS
DPGRID
DPNUM
DR
DRV
DTHETA
DTHETAV
DUMPFLUX
DX
DXV
DY
DYV
DZ
DZMATRIX
DZMTRX
DZMTRXV
DZNET
DZV
ECHO
END
ENDBOX
ENDFIN
ENDINC
ENDSKIP
EQLZCORN
EQUALREG
EQUALS
EXTFIN
EXTHOST
EXTRAPMS
EXTREPGL
FAULTS
FILEUNIT
FLUXNUM
FLUXREG
FLUXTYPE
FORMFEED
GDFILE
GDORIENT
GETDATA
GRID
GRIDFILE
GRIDUNIT
HALFTRAN
HEATCR
HEATCRT
HMAQUNUM
HMFAULTS
HMMLAQUN
HMMLT
HMMMREGT
HMMULRGT
HMMULTFT
HMMULTSG
HRFIN
HXFIN
HYFIN
HZFIN
IHOST
IMPORT
INCLUDE
INIT
INRAD
IONROCK
ISOLNUM
JFUNC
JFUNCR
LGRCOPY
LINKPERM
LTOSIGMA
LX
LXFIN
LY
LYFIN
LZ
LZFIN
MAPAXES
MAPUNITS
MAXVALUE
MESSAGE
MESSAGES
MINNNCT
MINPORV
MINPV
MINPVV
MINVALUE
MPFANUM
MPFNNC
MULTFLT
MULTIPLY
MULTIREG
MULTNUM
MULTPV
MULTR
MULTR-
MULTREGD
MULTREGH
MULTREGP
MULTREGT
MULTTHT
MULTTHT-
MULTX
MULTX-
MULTY
MULTY-
MULTZ
MULTZ-
NEWTRAN
NINENUM
NMATOPTS
NNC
NODPPM
NOECHO
NOGGF
NOWARN
NTG
NXFIN
NYFIN
NZFIN
OLDTRAN
OLDTRANR
OPERATE
OPERATER
OPERNUM
OUTRAD
PARAOPTS
PEBI
PERMAVE
PERMJFUN
PERMR
PERMTHT
PERMX
PERMY
PERMZ
PETGRID
PINCH
PINCHNUM
PINCHOUT
PINCHREG
PINCHXY
PORO
PYEND
PYINPUT
QMOBIL
RADFIN
RADFIN4
REFINE
RESVNUM
ROCKFRAC
RPTGRID
RPTGRIDL
RPTINIT
RPTISOL
SIGMA
SIGMAGD
SIGMAGDV
SIGMAV
SKIP
SKIP100
SKIP300
SMULTX
SMULTY
SMULTZ
SOLVDIRS
SOLVNUM
SPECGRID-
THCGAS
THCOIL
THCONR
THCONSF
THCROCK
THCWATER
THPRESFT
TOPS
TRANGL
USEFLUX
USENOFLO
VEDEBUG
VEFIN
WARN
ZCORN
